LAMMPS data file via write_data, version 7 Aug 2019, timestep = 12000000
  
7528 atoms
4 atom types

3.1781394890167824e+00 4.9274350212712889e+01 xlo xhi
3.1781394890167824e+00 4.9274350212712889e+01 ylo yhi
3.1781394890167824e+00 4.9274350212712889e+01 zlo zhi
4.5375694760665040e-05 0.0000000000000000e+00 0.0000000000000000e+00 xy xz yz

Masses

1 63.546
2 195.078
3 58.6934
4 30.97

Pair Coeffs # morse

1 0.556875 1.28889 2.7
2 0.734097 1.12258 3.1
3 0.477431 1.392 2.5
4 0.642431 1.2 2.9
  
Atoms # atomic

1       1       18.77300958        5.41985784        4.05878122
2       1       13.21329465       10.82829182       11.57845705
3       2       26.04990849        5.87214856       10.38988524
4       2       24.67454587        5.50777817        5.30369622
5       2        4.83331545       11.34598899       13.05659431
6       3       22.43530480        6.19500988        5.16511988
7       2        4.56051219        8.92539421       14.08901297
8       2       12.80578813        8.63405815        8.04879790
9       2        6.06010278        8.46286936        5.82125038
10       2       16.15899735        8.18175852       13.86438405
11       2       11.79767294        4.58026508        4.15692409
12       2        4.25166528       11.59990575        7.66628646
13       1        9.17085614       13.65140536        9.54660244
14       2       11.64346971       12.59458440       12.93175083
15       3        7.55638446       13.41348935       10.97377588
16       2       23.35553601        9.55147982       10.76760754
17       2        6.77909172        9.35273320        3.29115744
18       2       14.08669688        4.89783408        5.78714080
19       2        9.61493019       14.31618502       12.04392203
20       2        8.85902900        5.01459171        3.71313293
21       2       11.86186408        5.99130326        6.75968353
22       1        4.78534374       14.29978333        7.84283328
23       2        5.69993741        3.81449713       10.03587851
24       1        8.35945609        4.43858473       12.40071491
25       1       16.20803845        5.25024413       13.82194315
26       3       23.48430086        5.58047606        9.44103671
27       1       17.18368780        9.78900945       11.87681651
28       1       10.47723809        6.79227732        4.57482925
29       2        9.93239126        5.86952054       13.45907971
30       2        7.29131713       12.23131079       13.28125964
31       1       20.43060101        7.16566765        4.58537906
32       2       17.07408989       12.27114301        4.03655236
33       2       14.82523383        3.79257276       12.38595975
34       3        6.73336063        6.94923517        7.87031876
35       3       18.06568163        3.75822389        5.43618932
36       3       10.40346335       11.86318540        8.50008784
37       1       14.39392517        6.54821652        7.75120699
38       2       19.32057295        8.80596588       10.84024893
39       2       24.65674521        7.86936434        9.24476994
40       3       13.99114553       14.02912054        7.84006638
41       1        9.42824231       10.71682766        6.91374338
42       2        6.86241341       10.75228327        7.38989558
43       2       25.63006012        3.82703881       14.10732793
44       2        9.57503453        6.73294779        8.19695313
45       2        4.12346460       13.16584102        5.69661614
46       2       12.28324535        6.74442494       14.49508193
47       2       23.79157101       11.91473991        9.50928065
48       1        4.40565480        5.50510370        3.19465626
49       1        3.36205871        5.05057768       11.20480071
50       2        9.81882819        4.62991360        6.05982000
51       1       24.75205539        7.73849412        4.36017196
52       2        4.40366808        6.77227641       12.62448648
53       1        4.78422162        3.57817811        4.35311620
54       1       25.02618620        3.67066034        8.86766573
55       1       17.85767936        5.34437957        9.55917810
56       2       23.20784022        7.96587795       13.93154849
57       2       20.62265749        7.36884026        7.08028014
58       2       25.34501041        8.67529602       12.38893220
59       2       15.35651252        9.07869727        7.33500534
60       2       22.88711399        4.41407208        7.29097867
61       1       21.83994905       10.84111923        4.43310224
62       2        7.62600624        8.43896098        9.83404792
63       2        8.12849223       11.87788661        5.09725162
64       2        8.74807031        9.24193901        4.94400027
65       2       13.36151338        4.40267634        8.46780751
66       3       14.15932364        9.75266071        9.72967755
67       2        6.75630328        6.76282277        3.40305587
68       2       16.81891444        9.04863693        9.47365636
69       3       11.65802495       10.81068881        7.23082881
70       1       24.25761850       10.47190590        5.90615192
71       3       25.68284654       10.12986388        9.96581407
72       1       19.65004899       11.82366260        4.68560045
73       1       16.54769282        5.31400452        4.78086303
74       4       17.26468885       13.33144003        6.41142553
75       2       10.27336054       13.06931494        6.09687043
76       2       16.98825799        7.11084373       11.36401033
77       2       10.80794326       10.23127883       11.53811295
78       2        4.45744711       11.00955320       10.25745972
79       2        8.58761417       13.86645303        3.32257918
80       2       18.50993419       12.81836644       14.24636097
81       1        6.75393541       11.07931822       11.17088354
82       2       23.60283574       12.44590754        4.22871469
83       2        7.57218342        7.14870269       12.38304879
84       1        4.02641036        7.35697978        4.68973167
85       2       24.22006546        9.93416085        3.48474762
86       2       12.73128927       12.85566167        6.25242919
87       2       14.50800489        7.41199424       10.00364917
88       3        5.48363885        5.19163222        8.05765618
89       2       21.47945993       13.28306519        5.69646847
90       2       19.94408821        9.42822542        5.51778879
91       2       11.98351731        6.47049245        9.42727964
92       1       10.88841490       10.95354908        5.01094324
93       2        9.67191922       10.94193949       13.93543364
94       3       21.26592307       12.66676523        3.22778361
95       1       23.00582566        6.78998577        7.43165113
96       2        8.51168084       11.03520364        9.55115125
97       2       18.44705960       10.08279478        3.34968337
98       3        4.43308469        9.86109444        3.58714308
99       2       23.91868123       12.71288057        6.89778688
100       2       11.36804550        8.95250562        3.69191365
101       1       22.65168790        3.47174116        9.79770989
102       2       11.61565711       13.77836130        8.51385057
103       2       14.75448935       10.62260067       13.78737758
104       2        5.61457579        6.49047791       10.11302011
105       2        5.60734717        8.91817132       11.54716445
106       2       25.05057657       14.43791732        8.99825563
107       2       15.73571649        9.49852656        4.73551915
108       2       25.43697300        5.81192252        7.71680845
109       3        9.07220878       11.98621382       11.71471420
110       2        8.03482342        5.63763542       10.15146794
111       1        8.38385673       12.82108845        7.58291334
112       1        6.79513320        3.92779998       14.20957538
113       2       13.47468861       12.83860040       10.00537273
114       1       12.41101738        8.60925809       10.66129923
115       2       15.21183326       11.98228023        5.86177111
116       3       15.66913130       12.89822776        8.31762182
117       2       19.57299131        9.62729094        8.20308173
118       2        5.58816890       11.08310366        5.15800633
119       1        4.51937369       14.14734213       12.96381631
120       3       22.68976191       11.77081146       11.82857557
121       2       10.84089766        8.50854823        6.35555383
122       1       20.99697335        7.17202810       12.52810198
123       3       25.47557270        6.03881060       12.93413083
124       2       19.68114344        3.39213461       10.46473579
125       1       12.21718263       10.81176828       14.47564250
126       1       21.01972730       13.12465364       11.60864789
127       2       24.59917539        3.94474052       11.34976491
128       1       22.45842913        8.93238496        8.19292412
129       2       21.23008135       10.85944013        9.91514133
130       2       18.34771289       13.60561703       11.49839202
131       2       17.76682098        7.79221436        4.67655605
132       2        7.10924593        9.56511108       13.91166073
133       1       16.68270119       12.00840469       12.47428550
134       2        5.32246745        9.02301402        8.59404622
135       1       21.77697809        5.22449347       11.06115637
136       2        4.03712894        6.98294563        7.31379650
137       3       24.31094248       10.06937951        8.08789737
138       2       14.25507120       12.84809033       12.50483041
139       2       15.66520194       11.39640801       10.38927991
140       2        5.75745275        5.66115793        5.60630355
141       2       18.30465391        6.10309016        6.60860867
142       2       20.59432443        4.71755572        5.91271088
143       2       13.20922528       10.09592961        5.49691478
144       2       21.50155896        7.62184163        9.95772247
145       1       10.95420101       12.50234834       10.56124496
146       1       15.36044025        7.10556565        3.86541215
147       2        7.32095313        3.49825855        5.41790629
148       2       15.82899948       14.09990181       10.55678228
149       3       14.91076987       13.42692166        3.77769484
150       3       25.06068944       11.17899878       11.76280503
151       2        7.71781090        4.64662044        7.75016813
152       3        5.47744981       13.03011770       11.43266140
153       2       21.23108575       12.30917638       13.91821671
154       1       24.68717460        8.20146131        6.65647111
155       2       16.18143504        4.57344923        7.39416405
156       2       17.68346606       10.58939823        6.06759288
157       3       11.98427995        6.65016673       12.01235222
158       2       19.44706781       12.16076360        7.27150192
159       1       21.84941773       12.96874569        8.28351778
160       2       10.16593107        8.43485360       13.44351430
161       2       10.36159783        9.26650631        8.96070739
162       2       11.81181399        3.93695656       13.14809150
163       1       19.26975751       14.16904577        5.17185294
164       3        6.24952085       13.60189805        4.43423797
165       2       18.75519538        3.92093987        7.88510810
166       2       24.41497054       13.45378687       11.55748399
167       2        6.32643804       12.68891348        9.11421147
168       2       20.78740990        5.36494100        8.77835257
169       2       23.11378958        4.89360727       13.21384013
170       1       10.95550718       12.84919005        3.67120619
171       2       18.29233677       11.29503169        9.89994693
172       1       13.03859997        4.79399341       11.01202503
173       3       15.97221113        6.98283951        6.18261185
174       2       17.57499499        4.39549078       11.96959074
175       2       23.86395732       12.76746242       14.05077289
176       4       17.36371377       10.51564490       14.15318697
177       2       15.45704307        5.05340098       10.07948730
178       2       21.88232136       10.87805920        6.98756357
179       3       16.72689389       11.13980488        8.06976279
180       1       23.56887459       10.36481656       13.35728167
181       2        8.22835914        6.71934375        5.75522768
182       1       18.90061389        8.85720531       13.22991423
183       2       25.76683377       11.06945405       14.09230023
184       3        6.37009309       13.07311661        6.59793200
185       2       21.35968842        9.64397135       12.59094694
186       1        5.06779229        3.46572544        6.78894125
187       2       18.47850597        6.56878642       13.57532136
188       2       22.54408712        8.61756338        5.46005821
189       3       12.13338541       10.81411393        9.47596412
190       2       23.59037061        6.88564989       11.52910917
191       1       15.00996381        9.13419313       11.73063916
192       2       22.87346684        3.81050650        4.26293360
193       2       14.36535813        6.52056346       12.55308734
194       4        8.23078484        8.71980972        7.42295896
195       2       13.59691241        7.60192791        5.57802982
196       2       16.42749470       14.33977722       13.31437535
197       2       10.25626653        4.19387318        8.61966764
198       2       20.14980863        4.74089134       12.91093728
199       2        9.93129626        7.54447696       10.95971648
200       2       13.94813572       11.27127408        7.97442309
201       1        6.16863473        5.06298671       12.22667164
202       1       20.08768596       13.03430918        9.65815636
203       1       19.46085481        6.19131446       10.99674671
204       1       13.10926030       12.03588171        4.08392138
205       2       19.36317884       11.26851101       12.26159097
206       2       12.87971763        8.81662652       13.07586204
207       2        3.25377970        4.78223045        8.66581887
208       1       18.81359718        7.28393989        8.91013000
209       2       17.87298621       13.73437262        8.89490412
210       3       16.54991985        6.87974380        8.43820570
211       2       10.46999460        4.87379449       11.04527441
212       1        8.43126089        9.65568282       11.86829129
213       3       12.04929672       14.41321174       11.26364855
214       1        3.96080182       13.50856773        9.77642197
215       2        3.39933808        7.57376190        9.95265585
216       3       17.72545256        8.40023116        7.11247476
217       2        3.48646837        9.34809140        6.17349459
218       1       20.68991135        8.38257514       14.69783582
219       2       25.50325188       14.64643698        6.26279933
220       2       19.97311033        3.12857151        3.86400793
221       2       26.10938825       12.31091705        5.00512573
222       2       22.44520718       14.70543186       12.93044645
223       2        9.32801601       13.46141245       14.61324290
224       1        8.01799251       14.43971786        5.67807303
225       2       25.65560143        3.47656013        3.54061205
226       1       22.61767133        7.54994685        3.16419535
227       1       21.61416325        6.15819253       14.58219852
228       2       25.35470903       14.45444769        3.47825341
229       2       12.82024557        6.73053541        3.32990451
230       2       26.16113192       11.62044237        7.79226980
231       2       12.67507767       14.69375810        4.23597155
232       2       22.47125032       14.53843123       10.06582173
233       2        4.60474964        3.23373895       12.55745564
234       2       12.89103193       10.02214513       25.13615826
235       2        8.28709359       14.60002815       21.78572293
236       1       18.29760452        7.19090483       17.87700255
237       1        8.90736542       10.92772250       26.41075894
238       2       15.81568442        7.69490476       17.18977814
239       1        6.20647837       10.69776523       18.00192526
240       1        6.03220293       13.00999511       17.53367723
241       3       25.49219542        6.10937245       19.91733110
242       1       11.07114120        4.89843905       15.61364471
243       2        3.65961578        5.75173933       25.00673137
244       1        8.91690470        9.18595848       15.67356810
245       3       10.10268081        7.03304628       15.77744932
246       2        3.31996932        8.30614919       24.66299788
247       2        6.09223228        8.79332248       16.30756488
248       2        3.83101759       11.59294368       18.37077969
249       1       21.13277686        4.99132900       19.69908593
250       2        3.78523369        7.12086961       15.94386189
251       2        4.44040669       11.40327608       24.16544150
252       3       24.52096645       11.16971431       19.17216451
253       2        8.36202789       12.24332352       18.34203466
254       2        3.77534726        4.51347467       22.45438444
255       2       16.56633977        7.67011444       19.80340286
256       2       13.77851078       12.44950032       22.12171918
257       2       22.26837996       10.35973199       15.49579200
258       2       24.69993669        4.63558769       17.99235871
259       2       11.07876743       12.74780347       21.78610586
260       2        5.90675521       13.71103391       15.07043952
261       3        6.52002806        8.46136899       18.83816713
262       2       18.06411587        8.56796309       15.70386004
263       2       25.40586720        7.20500837       25.94565909
264       1       20.08624031       11.99141789       16.53005450
265       2        7.44968037        5.78432805       22.53354133
266       1       18.73313219       12.03081977       21.24995551
267       1       15.94074437        9.96685326       16.06108668
268       1       10.40250547       11.38418823       24.59211658
269       2       24.88330683        9.22111267       15.69190929
270       2        9.16423611        4.92882149       20.75524671
271       1        9.06244472        6.48077791       24.34356215
272       2        7.62774223       11.55708518       15.89808984
273       1       25.16308456       13.60292216       25.53376590
274       2       25.45068804       13.96222583       17.82862450
275       2       24.56786872        8.62211033       19.93736145
276       2       25.03007528       10.53571027       21.74455473
277       2        4.93912449       11.24912453       15.80447073
278       2       24.97776192        7.27612709       17.58897851
279       1       15.51024083        5.61944175       26.22397723
280       2       18.50262495        7.34236296       22.02774342
281       2        9.66343953        9.79520243       21.97186340
282       3        4.61330025        8.00551437       20.06325764
283       2       17.38340340        3.41010873       20.46697525
284       2       15.94428281       12.53060549       15.22094950
285       2       24.13900175        5.93807157       15.39671453
286       1       14.80353967       11.65592993       24.61923667
287       1       21.64982302       13.76822023       23.51210006
288       2        6.50231855        3.68821729       21.17554023
289       2       16.71379210        5.23827361       18.40291578
290       2       19.54562954        4.63049934       17.61692426
291       3       16.11285861        3.38843563       22.62361541
292       2        8.11982672        3.59629423       18.74264208
293       1       20.20951393       14.17113172       15.42197808
294       2       16.78058089        6.78717407       24.54562529
295       2       17.17181264        5.86919652       15.94671515
296       2       20.38180855        9.39723802       21.75769281
297       1        8.45755478       10.25285375       24.16247883
298       1        5.06913547        6.79305119       18.20771134
299       2        6.59677837        6.73157253       24.96615974
300       1       20.86174395        7.08175447       20.76259705
301       2       13.16300387        5.28596267       26.04221146
302       2       20.02526140        9.34749953       17.22988016
303       2       17.32391132        4.17561136       24.99345307
304       2        6.29633873       12.48468128       20.03933850
305       2       10.18937130       10.50437173       19.38809203
306       2       23.75044095        3.23174030       15.99416223
307       2       24.83821735        8.94889781       23.88090346
308       1       12.90849401       14.62030435       23.08062549
309       2        9.02517584        7.87344585       19.78028919
310       2       16.00609937       11.86899540       17.79251529
311       2       10.55683921        8.72144415       24.43438760
312       2       16.40715048       11.84526476       22.54172661
313       2       15.56782252        5.26663962       20.82340714
314       2       21.87810886       11.15215289       18.02716812
315       1       14.81631359        6.62990586       15.19339091
316       1       24.30749254        6.57451273       21.72928868
317       1        9.82416295        4.50442328       23.43228489
318       1       19.72260594       10.48941442       14.80334178
319       2        6.25181251        5.04626126       16.81503073
320       2       24.09072598        3.96338993       20.54446659
321       2        7.87419407        7.19685992       17.14560447
322       2        4.29941575       14.09321846       19.33304616
323       1       16.72302130       13.07172232       20.19142516
324       2        6.08727178        6.47303634       14.60086486
325       1        9.92889738       13.66224898       17.18728769
326       1       12.51075854       14.35587877       20.48294915
327       1        8.75786466       12.48304489       23.41748334
328       2       21.40214637        3.62783142       14.94939026
329       1       15.17206796       13.75658803       23.83465955
330       2       10.41260182       14.31015110       23.88039726
331       2       11.86051512       12.43657578       18.48145922
332       2       22.10330873        5.22930647       17.05962796
333       2       14.45805599        9.57768982       18.33877959
334       1       20.53212642       11.34642077       25.10385251
335       1       15.82297618        3.73095928       15.81718152
336       1       10.65480625        3.42195011       19.38969372
337       2        4.71225544       14.00786045       24.94025156
338       1        5.42207017       10.09632698       20.07067234
339       1       20.59592148        6.90125103       18.35618074
340       2       13.89699910        7.61996273       24.14829708
341       2       17.45609227       12.40824696       24.89646258
342       2       18.06757290       13.70678326       16.67514642
343       3       19.48409664       12.97017936       23.68045891
344       3       25.57043803        6.38615015       23.65920428
345       2       11.73633419        8.25157647       19.72354483
346       2       23.07631265        6.41210961       19.40422833
347       1       17.44564005        5.19274760       22.50605739
348       3       23.71277410        9.59474472       17.82207684
349       2       21.88223142        8.81851511       19.32776034
350       2       23.04709253       13.35648879       18.80065662
351       2       24.25508906       12.82692530       23.26477612
352       2       12.52592798       12.75164776       24.56282962
353       2       22.82129997        8.48576489       22.04974049
354       2        3.42497125        4.98157131       17.32907592
355       2       24.32141867       11.09015956       25.85250517
356       1       19.21029267        5.61969196       24.08811987
357       2       22.29418247       13.24846289       16.20652744
358       1       14.20137531        8.63674306       20.72221862
359       2       10.28075458       11.18509493       16.55664052
360       2       17.72680728       14.08479666       22.26639132
361       3       18.00898785       11.13362550       16.33545344
362       2       24.54456495        4.77424861       25.65862976
363       2       12.24199111        6.92136544       17.19396536
364       2       14.39839503        5.20081472       17.22739025
365       2       18.93609486        8.18232064       24.42269441
366       2       10.04352521       14.15632809       19.67843072
367       2       13.68166292       11.44037819       16.40325739
368       2       20.75269093       12.71656369       19.92401546
369       2        6.21547053       13.15263607       22.76018987
370       1       20.83721466       11.80188911       22.38591768
371       2       19.77943631        6.51924869       15.95097740
372       2       24.40426824       11.74538378       16.70496938
373       1       13.41310689        4.51587171       19.66629945
374       2       22.66762235        8.87460633       25.60636757
375       2       14.18632662       13.95789112       17.05141409
376       2       22.70052640       10.82843631       23.60984803
377       2       12.70053188       10.71574626       20.40728115
378       2        5.21643874        4.10437340       18.95237152
379       3       22.48745938       13.23246812       21.51771074
380       3        3.84541274       13.48287837       16.79898015
381       3       20.85620630        6.87223385       25.41259137
382       2        6.84187932       10.62405032       22.32261550
383       1       19.86747959       10.43200077       19.61065811
384       2       11.86023950       13.23633598       15.61103816
385       1        7.71606168       10.10123045       19.96843139
386       2        8.55313800        5.05675242       15.55670086
387       2        4.26199141       11.88064828       21.48095880
388       2       15.60320123       10.75613557       20.29274202
389       2       12.15796714        8.52716791       22.30605892
390       3       20.22297773       14.07424760       21.83032725
391       2       14.82518514        5.15781237       23.60884381
392       1        8.26798972        9.68880518       17.77613573
393       2        3.64072041       14.31141073       22.18558994
394       2       15.82785917        7.60042095       22.27746655
395       2        6.92054237       12.01914531       25.09100766
396       2       14.02827899        6.88910049       19.12028932
397       2       13.25377973        6.27789871       21.70340370
398       1       19.18458592        8.26960610       19.67418506
399       1       11.44549255        5.86323142       19.74714251
400       2       22.37430557        7.87547874       16.67375525
401       1       11.87042721       10.79942945       22.95216638
402       2       18.49339186       12.12548745       18.63909097
403       2       21.49181331        4.70884838       23.90168727
404       1       20.41329154       14.05338367       17.84634369
405       1       11.27074258        8.98198067       15.54730216
406       1       10.16275329        8.36660856       17.61459292
407       2       14.25918673       12.91603020       19.49597441
408       2        6.75923920        8.09721592       21.29785275
409       2        8.06570335        4.60052206       25.74119664
410       2        5.83488249        4.30424884       24.15141590
411       1        5.00552512        5.90009160       20.69653488
412       3        8.06728418        8.22489503       23.27224581
413       2        7.12554241        6.04401359       19.48168202
414       2       14.38921697        9.97024656       22.75987186
415       2       11.63991733        6.18629808       24.08736999
416       2       23.15996257        6.76781076       24.10289581
417       2       22.63578709       10.95028284       20.72192213
418       2        4.42367496        9.33413727       22.33764047
419       2       24.02052048        4.42287321       23.13975198
420       1       20.88561977        7.15166915       23.11546674
421       4       12.11129666        4.22904883       17.66682245
422       2       16.48038479        9.50832599       24.22248194
423       2       11.67473633        4.24764772       21.63486848
424       2       21.69243759        3.37703285       21.46775380
425       4       12.10627387        9.80175054       17.67225076
426       2        8.70019212       12.13349324       21.00300421
427       1       20.00663621        5.21718954       21.91311034
428       2       17.47653954        9.67410389       18.32564340
429       2       13.73803565        8.78363470       15.72326550
430       2       24.87816294       13.22432414       20.62015863
431       2        6.00756127        9.26355851       24.51069462
432       2       10.06242171        6.97895979       22.04245719
433       2       17.67850291        9.70199806       21.24419463
434       2        9.80701111        5.64372434       17.96501016
435       3       22.30984330        5.73720102       21.74821224
436       3       20.96137815        9.27900229       24.09384156
437       2       18.65043718        3.98032724       14.97984717
438       2       18.80655748       10.63540622       23.45342923
439       2        4.95316162        6.88409483       22.95774577
440       2       18.68595039        5.70199920       19.97647413
441       1        4.31770229        9.08169164       18.06907797
442       2       13.65248125        4.53136887       14.81937418
443       2       26.24785344        9.64393018       18.12959145
444       2       12.57230443        3.62787339       23.98893950
445       2       22.53838048       13.00012120       25.57557985
446       3        8.24861932        7.38473546       14.65124429
447       2        8.24018457        8.48842182       25.87279626
448       3       16.22653587       14.22690173       18.25962316